<?xml version="1.0"?>
<VTKFile type="UnstructuredGrid" version="2.2">
  <UnstructuredGrid>
    <Piece NumberOfPoints="216" NumberOfCells="750">
      <Points>
        <DataArray type="Float64" NumberOfComponents="3" format="ascii">0.8 0 0 1 0 0 1 0.2 0 1 0.2 0.2 1 0 0.2 0.8 0.2 0 0.8 0 0.2 1 0.4 0.2 0.8 0.2 0.2 1 0.2 0.4 1 0.4 0 0.6000000000000001 0 0 1 0 0.4 0.8 0.4 0 1 0.4 0.4 0.8 0.4 0.2 0.6000000000000001 0.2 0 0.8 0 0.4 0.8 0.2 0.4 0.6000000000000001 0 0.2 1 0.6000000000000001 0.2 0.6000000000000001 0.2 0.2 1 0.2 0.6000000000000001 1 0.6000000000000001 0 1 0.6000000000000001 0.4 0.8 0.4 0.4 0.4 0 0 1 0 0.6000000000000001 1 0.4 0.6000000000000001 0.8 0.6000000000000001 0 0.8 0.6000000000000001 0.2 0.6000000000000001 0.4 0 0.6000000000000001 0.4 0.2 0.4 0.2 0 0.8 0 0.6000000000000001 0.8 0.2 0.6000000000000001 0.6000000000000001 0 0.4 0.6000000000000001 0.2 0.4 0.4 0 0.2 1 0.8 0.2 1 0.6000000000000001 0.6000000000000001 0.8 0.6000000000000001 0.4 0.4 0.2 0.2 1 0.2 0.8 0.8 0.4 0.6000000000000001 1 0.8 0 1 0.8 0.4 0.6000000000000001 0.4 0.4 0.2 0 0 1 0 0.8 1 0.4 0.8 0.8 0.8 0 0.8 0.8 0.2 0.6000000000000001 0.6000000000000001 0 0.6000000000000001 0.6000000000000001 0.2 0.4 0.4 0 1 0.8 0.6000000000000001 0.8 0.6000000000000001 0.6000000000000001 0.4 0.4 0.2 0.2 0.2 0 0.8 0 0.8 0.8 0.2 0.8 0.6000000000000001 0 0.6000000000000001 0.6000000000000001 0.2 0.6000000000000001 0.4 0 0.4 1 0.6000000000000001 0.8 0.4 0.2 0.4 0.2 0 0.2 1 1 0.2 0.8 0.8 0.4 0.6000000000000001 0.6000000000000001 0.4 0.2 0.2 0.2 1 0.2 1 0.8 0.4 0.8 0.6000000000000001 0.4 0.6000000000000001 1 1 0 1 1 0.4 1 0.8 0.8 0.8 0.8 0.6000000000000001 0.4 0.4 0.4 0 0 0 1 0 1 1 0.4 1 0.8 0.6000000000000001 0.8 0.8 1 0 0.8 1 0.2 0.6000000000000001 0.8 0 0.6000000000000001 0.8 0.2 0.4 0.6000000000000001 0 1 1 0.6000000000000001 0.4 0.6000000000000001 0.2 0.2 0.4 0 0.6000000000000001 0.6000000000000001 0.6000000000000001 0.2 0.4 0.2 0 0.2 0 0.8 0 1 0.8 0.2 1 0.6000000000000001 0 0.8 0.6000000000000001 0.2 0.8 0.4 0 0.6000000000000001 1 0.6000000000000001 1 0.4 0.2 0.6000000000000001 0.2 0 0.4 0.2 0.2 0.4 0 0 0.2 0.8 1 0.4 0.6000000000000001 0.8 0.4 1 1 0.8 0.8 0.8 0.8 0.4 0.6000000000000001 0.4 0 0.2 0.2 0.8 0.4 1 0.6000000000000001 0.4 0.8 1 0.8 1 0.4 0.4 0.6000000000000001 0.8 1 0.6000000000000001 0.6000000000000001 0.8 0.6000000000000001 0.2 0.4 0.4 0.8 0.6000000000000001 1 0.6000000000000001 0.6000000000000001 0.8 0.6000000000000001 1 0 0.6000000000000001 1 0.2 0.4 0.8 0 0.4 0.8 0.2 0.2 0.6000000000000001 0 0.2 0.6000000000000001 0.2 0 0.4 0 1 1 1 0.8 1 0.8 0.4 0.6000000000000001 0.6000000000000001 0 0.4 0.2 0.6000000000000001 0 1 0.6000000000000001 0.2 1 0.4 0 0.8 0.4 0.2 0.8 0.2 0 0.6000000000000001 0.2 0.2 0.6000000000000001 0 0 0.4 0.8 0.8 1 0 0.2 0.4 0.6000000000000001 1 0.4 0.4 0.8 0.4 0.6000000000000001 0.8 0.8 0.2 0.6000000000000001 0.4 0.6000000000000001 0.4 1 0.4 0.4 0.8 0.2 0.4 0.6000000000000001 0.6000000000000001 1 0.6000000000000001 0.8 1 1 0.4 0.8 0.6000000000000001 0 0.4 0.4 0.6000000000000001 0.6000000000000001 1 0.4 0.6000000000000001 0.8 0.4 1 0 0.4 1 0.2 0.2 0.8 0 0.2 0.8 0.2 0 0.6000000000000001 0 0 0.6000000000000001 0.2 0.6000000000000001 1 0.8 0.2 0.6000000000000001 0.6000000000000001 0.4 0 1 0.4 0.2 1 0.2 0 0.8 0.2 0.2 0.8 0 0 0.6000000000000001 0 0.2 0.6000000000000001 0.6000000000000001 0.8 1 0.4 1 0.4 0.2 0.8 0.4 0.4 0.8 0.8 0 0.6000000000000001 0.4 0.4 0.4 1 0.2 0.4 0.8 0 0.4 0.6000000000000001 0.4 1 0.6000000000000001 0.6000000000000001 1 1 0.2 0.8 0.6000000000000001 0.4 0.6000000000000001 1 0.2 0.6000000000000001 0.8 0.2 1 0 0.2 1 0.2 0 0.8 0 0 0.8 0.2 0.4 1 0.8 0 0.6000000000000001 0.6000000000000001 0.2 0 1 0.2 0.2 1 0 0 0.8 0 0.2 0.8 0.4 0.8 1 0.2 1 0.4 0 0.8 0.4 0.2 0.8 0.8 0.2 0.4 1 0 0.4 0.8 0.2 1 0.6000000000000001 0.4 1 1 0 0.8 0.6000000000000001 0.2 0.6000000000000001 1 0 0.6000000000000001 0.8 0 1 0 0 1 0.2 0.2 1 0.8 0 0 1 0 0.2 1 0.2 0.8 1 0 1 0.4 0 0.8 0.8 0 0.4 1 0 1 0.6000000000000001 0.2 1 1 0 0.6000000000000001 1 0 1 0.8 0 0.8 1 0 1 1 </DataArray>
      </Points>
      <Cells>
        <DataArray type="Int32" Name="connectivity" format="ascii">0 1 2 3 0 1 3 4 0 2 5 3 0 4 3 6 5 2 7 3 0 5 8 3 6 4 3 9 0 8 6 3 5 2 10 7 5 3 7 8 11 0 5 8 6 4 9 12 6 3 8 9 11 0 8 6 5 10 13 7 8 3 7 14 5 15 8 7 11 5 16 8 6 12 9 17 8 3 14 9 6 8 18 9 11 6 8 19 13 10 20 7 5 13 15 7 8 7 15 14 16 5 15 8 11 16 21 8 17 12 9 22 6 18 17 9 8 9 14 18 19 6 8 18 11 21 19 8 13 10 23 20 13 7 20 15 16 5 13 15 15 7 24 14 8 15 25 14 16 8 15 21 26 11 16 21 17 12 22 27 17 9 18 22 19 6 18 17 18 9 14 28 8 25 18 14 19 8 21 18 26 11 21 19 13 23 29 20 15 7 20 24 13 30 15 20 16 13 31 15 15 14 24 25 21 8 15 25 16 32 21 15 26 16 33 21 17 27 22 34 18 9 28 22 17 18 35 22 19 17 18 36 18 14 25 28 21 8 25 18 19 21 37 18 26 19 21 38 29 23 39 20 13 29 30 20 15 20 30 24 31 13 30 15 16 31 32 15 25 14 24 40 15 41 25 24 21 15 32 25 33 16 32 21 26 33 42 21 34 27 22 43 17 35 34 22 18 22 28 35 36 17 18 35 19 37 36 18 25 14 40 28 18 25 44 28 21 18 25 37 38 19 21 37 26 42 38 21 29 23 45 39 29 20 39 30 31 13 29 30 30 20 46 24 15 30 41 24 31 15 30 32 33 16 31 32 25 24 41 40 32 15 41 25 21 32 47 25 33 21 32 42 48 26 33 42 34 27 43 49 34 22 35 43 36 17 35 34 35 22 28 50 18 44 35 28 36 18 37 35 38 19 37 36 25 28 40 44 37 18 25 44 21 47 37 25 38 21 42 37 48 26 42 38 29 45 51 39 30 20 39 46 29 52 30 39 31 29 53 30 30 24 46 41 32 15 30 41 31 54 32 30 33 31 55 32 41 24 56 40 25 41 57 40 32 25 41 47 42 21 32 47 33 58 42 32 48 33 59 42 34 49 43 60 35 22 50 43 34 35 61 43 36 34 35 62 35 28 44 50 37 18 44 35 36 37 63 35 38 36 37 64 44 28 40 65 25 57 44 40 37 25 47 44 42 21 47 37 38 42 66 37 48 38 42 67 51 45 68 39 29 51 52 39 30 39 52 46 53 29 52 30 31 53 54 30 41 24 46 56 30 69 41 46 32 30 54 41 55 31 54 32 33 55 58 32 41 40 56 57 47 25 41 57 32 70 47 41 42 32 58 47 59 33 58 42 48 59 71 42 60 49 43 72 34 61 60 43 35 43 50 61 62 34 35 61 36 63 62 35 44 28 65 50 35 44 73 50 37 35 44 63 64 36 37 63 38 66 64 37 44 40 57 65 47 25 57 44 37 47 74 44 42 37 47 66 67 38 42 66 48 71 67 42 51 45 75 68 51 39 68 52 53 29 51 52 52 39 76 46 30 52 69 46 53 30 52 54 55 31 53 54 41 46 69 56 54 30 69 41 32 54 70 41 55 32 54 58 59 33 55 58 57 40 56 77 41 78 57 56 47 41 70 57 58 32 70 47 42 58 79 47 59 42 58 71 80 48 59 71 60 49 72 81 60 43 61 72 62 34 61 60 61 43 50 82 35 73 61 50 62 35 63 61 64 36 63 62 44 50 65 73 63 35 44 73 37 74 63 44 64 37 66 63 67 38 66 64 57 40 77 65 44 57 83 65 47 44 57 74 66 37 47 74 42 79 66 47 67 42 71 66 80 48 71 67 51 75 84 68 52 39 68 76 51 85 52 68 53 51 86 52 52 46 76 69 54 30 52 69 53 87 54 52 55 53 88 54 69 46 89 56 41 69 78 56 54 41 69 70 58 32 54 70 55 90 58 54 59 55 91 58 57 56 78 77 70 41 78 57 47 70 92 57 58 47 70 79 71 42 58 79 59 93 71 58 80 59 94 71 60 81 72 95 61 43 82 72 60 61 96 72 62 60 61 97 61 50 73 82 63 35 73 61 62 63 98 61 64 62 63 99 73 50 65 100 44 83 73 65 63 44 74 73 66 37 74 63 64 66 101 63 67 64 66 102 57 65 77 83 74 44 57 83 47 92 74 57 66 47 79 74 71 42 79 66 67 71 103 66 80 67 71 104 51 84 85 68 52 68 85 76 86 51 85 52 53 86 87 52 69 46 76 89 52 105 69 76 54 52 87 69 88 53 87 54 55 88 90 54 69 56 89 78 70 41 69 78 54 106 70 69 58 54 90 70 91 55 90 58 59 91 93 58 78 56 107 77 57 78 108 77 70 57 78 92 79 47 70 92 58 109 79 70 71 58 93 79 94 59 93 71 80 94 110 71 60 96 95 72 61 72 82 96 97 60 61 96 62 98 97 61 73 50 100 82 61 73 111 82 63 61 73 98 99 62 63 98 64 101 99 63 73 65 83 100 74 44 83 73 63 74 112 73 66 63 74 101 102 64 66 101 67 103 102 66 83 65 77 113 57 108 83 77 74 57 92 83 79 47 92 74 66 79 114 74 71 66 79 103 104 67 71 103 80 110 104 71 86 51 84 85 52 85 105 76 86 52 85 87 88 53 86 87 69 76 105 89 87 52 105 69 54 87 106 69 88 54 87 90 91 55 88 90 78 56 89 107 69 115 78 89 70 69 106 78 90 54 106 70 58 90 109 70 91 58 90 93 94 59 91 93 78 77 107 108 92 57 78 108 70 116 92 78 79 70 109 92 93 58 109 79 71 93 117 79 94 71 93 110 97 60 96 95 61 111 96 82 97 61 98 96 99 62 98 97 73 82 100 111 98 61 73 111 63 112 98 73 99 63 101 98 102 64 101 99 83 65 113 100 73 83 118 100 74 73 83 112 101 63 74 112 66 114 101 74 102 66 103 101 104 67 103 102 83 77 108 113 92 57 108 83 74 92 119 83 79 74 92 114 103 66 79 114 71 117 103 79 104 71 110 103 86 84 120 85 87 52 85 105 86 121 87 85 88 86 122 87 69 105 115 89 87 69 105 106 90 54 87 106 88 123 90 87 91 88 124 90 78 89 115 107 106 69 115 78 70 106 116 78 90 70 106 109 93 58 90 109 91 125 93 90 94 91 126 93 108 77 107 127 78 128 108 107 92 78 116 108 109 70 116 92 79 109 129 92 93 79 109 117 110 71 93 117 94 130 110 93 97 95 96 131 98 61 111 96 97 98 132 96 99 97 98 133 73 118 111 100 98 73 112 111 101 63 112 98 99 101 134 98 102 99 101 135 83 100 113 118 112 73 83 118 74 119 112 83 101 74 114 112 103 66 114 101 102 103 136 101 104 102 103 137 108 77 127 113 83 108 138 113 92 83 108 119 114 74 92 119 79 129 114 92 103 79 117 114 110 71 117 103 104 110 139 103 86 120 121 85 87 85 121 105 122 86 121 87 88 122 123 87 106 69 105 115 87 140 106 105 90 87 123 106 124 88 123 90 91 124 125 90 78 115 128 107 106 78 115 116 109 70 106 116 90 141 109 106 93 90 125 109 126 91 125 93 94 126 130 93 108 107 128 127 116 78 128 108 92 116 142 108 109 92 116 129 117 79 109 129 93 143 117 109 110 93 130 117 97 132 131 96 98 96 111 132 133 97 98 132 99 134 133 98 112 73 118 111 98 112 144 111 101 98 112 134 135 99 101 134 102 136 135 101 83 138 118 113 112 83 119 118 114 74 119 112 101 114 145 112 103 101 114 136 137 102 103 136 104 139 137 103 108 113 127 138 119 83 108 138 92 142 119 108 114 92 129 119 117 79 129 114 103 117 146 114 110 103 117 139 122 86 120 121 87 121 140 105 122 87 121 123 124 88 122 123 106 105 140 115 123 87 140 106 90 123 141 106 124 90 123 125 126 91 124 125 116 78 115 128 106 147 116 115 109 106 141 116 125 90 141 109 93 125 143 109 126 93 125 130 108 128 148 127 116 108 128 142 129 92 116 142 109 149 129 116 117 109 143 129 130 93 143 117 110 130 150 117 133 97 132 131 98 144 132 111 133 98 134 132 135 99 134 133 112 111 118 144 134 98 112 144 101 145 134 112 135 101 136 134 137 102 136 135 119 83 
[...]
      <CellData Scalars="f">
        <DataArray type="UInt8" Name="vtkGhostType" format="ascii" RangeMin="0" RangeMax="1">0 0 0 0 0 0 0 0 0 0 0 0 0 0 0 0 0 0 0 0 0 0 0 0 0 0 0 0 0 0 0 0 0 0 0 0 0 0 0 0 0 0 0 0 0 0 0 0 0 0 0 0 0 0 0 0 0 0 0 0 0 0 0 0 0 0 0 0 0 0 0 0 0 0 0 0 0 0 0 0 0 0 0 0 0 0 0 0 0 0 0 0 0 0 0 0 0 0 0 0 0 0 0 0 0 0 0 0 0 0 0 0 0 0 0 0 0 0 0 0 0 0 0 0 0 0 0 0 0 0 0 0 0 0 0 0 0 0 0 0 0 0 0 0 0 0 0 0 0 0 0 0 0 0 0 0 0 0 0 0 0 0 0 0 0 0 0 0 0 0 0 0 0 0 0 0 0 0 0 0 0 0 0 0 0 0 0 0 0 0 0 0 0 0 0 0 0 0 0 0 0 0 0 0 0 0 0 0 0 0 0 0 0 0 0 0 0 0 0 0 0 0 0 0 0 0 0 0 0 0 0 0 0 0 0 0 0 0 0 0 0 0 0 0 0 0 0 0 0 0 0 0 0 0 0 0 0 0 0 0 0 0 0 0 0 0 0 0 0 0 0 0 0 0 0 0 0 0 0 0 0 0 0 0 0 0 0 0 0 0 0 0 0 0 0 0 0 0 0 0 0 0 0 0 0 0 0 0 0 0 0 0 0 0 0 0 0 0 0 0 0 0 0 0 0 0 0 0 0 0 0 0 0 0 0 0 0 0 0 0 0 0 0 0 0 0 0 0 0 0 0 0 0 0 0 0 0 0 0 0 0 0 0 0 0 0 0 0 0 0 0 0 0 0 0 0 0 0 0 0 0 0 0 0 0 0 0 0 0 0 0 0 0 0 0 0 0 0 0 0 0 0 0 0 0 0 0 0 0 0 0 0 0 0 0 0 0 0 0 0 0 0 0 0 0 0 0 0 0 0 0 0 0 0 0 0 0 0 0 0 0 0 0 0 0 0 0 0 0 0 0 0 0 0 0 0 0 0 0 0 0 0 0 0 0 0 0 0 0 0 0 0 0 0 0 0 0 0 0 0 0 0 0 0 0 0 0 0 0 0 0 0 0 0 0 0 0 0 0 0 0 0 0 0 0 0 0 0 0 0 0 0 0 0 0 0 0 0 0 0 0 0 0 0 0 0 0 0 0 0 0 0 0 0 0 0 0 0 0 0 0 0 0 0 0 0 0 0 0 0 0 0 0 0 0 0 0 0 0 0 0 0 0 0 0 0 0 0 0 0 0 0 0 0 0 0 0 0 0 0 0 0 0 0 0 0 0 0 0 0 0 0 0 0 0 0 0 0 0 0 0 0 0 0 0 0 0 0 0 0 0 0 0 0 0 0 0 0 0 0 0 0 0 0 0 0 0 0 0 0 0 0 0 0 0 0 0 0 0 0 0 0 0 0 0 0 0 0 0 0 0 0 0 0 0 0 0 0 0 0 0 0 0 0 0 0 0 0 0 0 0 0 0 0 0 0 0 0 0 0 0 0 0 0 0 0 0 0 0 0 0 0 0 0 0 0 0 0 0 0 0 0 0 0 0 0 0 0 0 0 0 0 0 0 0 0 0 0 0 0 0 0 0 0 0 0 0 0 0 0 0 0 0 0 0 0 0 0 0 0 0 0 0 0 0 0 0 0 0 0 </DataArray>
        <DataArray type="Int64" IdType="1" Name="vtkOriginalCellIds" format="ascii" RangeMin="0" RangeMax="749">0 1 2 3 4 5 6 7 8 9 10 11 12 13 14 15 16 17 18 19 20 21 22 23 24 25 26 27 28 29 30 31 32 33 34 35 36 37 38 39 40 41 42 43 44 45 46 47 48 49 50 51 52 53 54 55 56 57 58 59 60 61 62 63 64 65 66 67 68 69 70 71 72 73 74 75 76 77 78 79 80 81 82 83 84 85 86 87 88 89 90 91 92 93 94 95 96 97 98 99 100 101 102 103 104 105 106 107 108 109 110 111 112 113 114 115 116 117 118 119 120 121 122 123 124 125 126 127 128 129 130 131 132 133 134 135 136 137 138 139 140 141 142 143 144 145 146 147 148 149 150 151 152 153 154 155 156 157 158 159 160 161 162 163 164 165 166 167 168 169 170 171 172 173 174 175 176 177 178 179 180 181 182 183 184 185 186 187 188 189 190 191 192 193 194 195 196 197 198 199 200 201 202 203 204 205 206 207 208 209 210 211 212 213 214 215 216 217 218 219 220 221 222 223 224 225 226 227 228 229 230 231 232 233 234 235 236 237 238 239 240 241 242 243 244 245 246 247 248 249 250 251 252 253 254 255 256 257 258 259 260 261 262 263 264 265 266 267 268 269 270 271 272 273 274 275 276 277 278 279 280 281 282 283 284 285 286 287 288 289 290 291 292 293 294 295 296 297 298 299 300 301 302 303 304 305 306 307 308 309 310 311 312 313 314 315 316 317 318 319 320 321 322 323 324 325 326 327 328 329 330 331 332 333 334 335 336 337 338 339 340 341 342 343 344 345 346 347 348 349 350 351 352 353 354 355 356 357 358 359 360 361 362 363 364 365 366 367 368 369 370 371 372 373 374 375 376 377 378 379 380 381 382 383 384 385 386 387 388 389 390 391 392 393 394 395 396 397 398 399 400 401 402 403 404 405 406 407 408 409 410 411 412 413 414 415 416 417 418 419 420 421 422 423 424 425 426 427 428 429 430 431 432 433 434 435 436 437 438 439 440 441 442 443 444 445 446 447 448 449 450 451 452 453 454 455 456 457 458 459 460 461 462 463 464 465 466 467 468 469 470 471 472 473 474 475 476 477 478 479 480 481 482 483 484 485 486 487 488 489 490 491 492 493 494 495 496 497 498 499 500 501 502 503 504 505 506 507 508 509 510 511 512 513 514 515 516 517 518 519 520 521 522 523 524 525 526 527 528 529 530 531 532 533 534 535 536 537 538 539 540 541 542 543 544 545 546 547 548 549 550 551 552 553 554 555 556 557 558 559 560 561 562 563 564 565 566 567 568 569 570 571 572 573 574 575 576 577 578 579 580 581 582 583 584 585 586 587 588 589 590 591 592 593 594 595 596 597 598 599 600 601 602 603 604 605 606 607 608 609 610 611 612 613 614 615 616 617 618 619 620 621 622 623 624 625 626 627 628 629 630 631 632 633 634 635 636 637 638 639 640 641 642 643 644 645 646 647 648 649 650 651 652 653 654 655 656 657 658 659 660 661 662 663 664 665 666 667 668 669 670 671 672 673 674 675 676 677 678 679 680 681 682 683 684 685 686 687 688 689 690 691 692 693 694 695 696 697 698 699 700 701 702 703 704 705 706 707 708 709 710 711 712 713 714 715 716 717 718 719 720 721 722 723 724 725 726 727 728 729 730 731 732 733 734 735 736 737 738 739 740 741 742 743 744 745 746 747 748 749 </DataArray>
        <DataArray type="Float64" Name="f" format="ascii">1.073045597453838 1.077110333244551 2.027804147143361 2.049468413016441 0.9925072595808302 2.950909683348204 1.024480941236822 2.972381724351487 0.9715593035738019 1.90533391521603 4.829934989597424 1.018628630433976 1.947226057117188 4.849173368272853 1.801744912878477 0.9285999945359301 2.701792399332294 5.63035853966317 1.913027805704817 0.9393436943567668 2.791712929531203 5.685624492268795 0.8456245844582716 2.622110216960009 1.731062915768885 4.510835824283843 6.444659986880662 0.9294203303558477 2.768789431211235 1.777923951152105 4.631058877579265 6.486663527418343 0.8110114643169173 1.623529767272788 4.394641354265067 0.8011348485189113 2.481493104890853 5.291511646430788 8.239542225820852 0.910393250951563 1.760418022812525 4.581955668112419 0.8415201472200192 2.516377567430566 5.394940859342872 8.271367565699911 1.457301461357144 0.7757284909790971 2.242357699852636 5.009416414963233 1.516882918680205 4.212618499377637 5.902812457635293 8.926440889166145 1.6609623344258 0.837732670228318 2.466704289560754 5.287329087816989 1.564749699792019 4.260705373295267 6.084906740998836 9.0140676613238 0.6396084569957696 2.110961586107712 1.401440563171647 3.831417000432355 5.733448427761837 0.7052151700102162 2.09266309276684 4.801074884157686 7.703924211321168 9.656786649397326 0.7638581669849638 2.385137556761434 1.539877642021808 4.156748008335315 6.028410465273233 0.7161621484487615 2.192469693299914 4.918366638953687 7.903665098860271 9.720624631540929 0.5887506048346147 1.221043446877615 3.636380508623668 0.6074771508498292 2.001434290558549 4.49610611276255 7.50373583215281 1.272608627110555 3.622744944475595 5.41472966675036 8.392718715098088 11.36612924073884 0.7226604624940818 1.430188027034511 4.025850679841036 0.6887345013069205 2.164613133001974 4.838953656052341 7.816036799889014 1.317338916156709 3.780191478846112 5.484868498324726 8.556388544122914 11.41274543703312 0.9780865823896503 0.5638176959562253 1.593545768467814 4.018765607782211 1.145611761891007 3.489415076928657 4.88236526534036 7.945114535388281 0.5486451022063485 1.778529938691961 4.184374283968225 7.195498581531145 8.846974431036807 11.89129201223703 1.220882875878822 0.6607991400892974 1.897009469178815 4.521860232294147 1.269083687153648 3.741104088529237 5.336163945535191 8.385517831323453 0.5808126696532913 1.808790662195442 4.307189300210633 7.276714748839805 9.125645954574487 12.01753590214837 0.3500887008248593 1.395676000709961 0.9417181199023337 2.840910181396549 4.594801408295806 0.5176775477447493 1.494935416074169 3.855469884467791 6.542724663999946 8.594295987014243 1.007121806768581 3.141314725222234 4.545451025924891 7.61742926619533 10.62337493629088 12.46878121176948 0.4668465118914285 1.716407656041651 1.123605372483304 3.310352935961268 5.145174501201829 0.5670258348113963 1.683405636197668 4.199001273594869 7.085640713114371 9.044936815620213 1.042221393839239 3.189062094128395 4.749372353904993 7.803665429304483 10.9150988829637 12.55755687687535 0.2716189912612192 0.655110486254557 2.554667088041424 0.3338382812841744 1.327968338528273 3.332624337605298 6.203059410746137 0.864957086253144 2.694853192343502 4.347038096558964 7.13169837436768 10.34683003713175 0.436456794427256 1.311706009139901 3.473645050464885 6.186351069729189 8.123774466678976 11.18599198812954 13.86031610088352 0.377652039734176 0.8462243909862949 3.050445298656941 0.4161180265155026 1.550163515999447 3.844402162200335 6.852715963206764 0.9649761775063459 3.006147353110774 4.676694964181314 7.67588659559247 10.80334011756969 0.4440850507121175 1.381149913402825 3.582197537910908 6.449954538442595 8.230785215590458 11.41971415827524 13.92228998097291 0.282646545863434 0.2603582051306058 0.6734140542602983 2.623566776822831 0.6192563434387256 2.458238536482411 3.422381152480815 6.370899010638494 0.3082887586081101 1.197057783108948 3.114276217427043 5.954574936057509 7.321860855840767 10.58259701701414 0.7280728286999339 2.394354727646964 3.83321197637702 6.639677453352454 9.933839326869348 11.42313963848684 14.01692721404713 0.4053457931795107 0.3400086299461514 0.8879669481726267 3.193421452320475 0.746061581850486 2.828649668736882 4.020471740655471 7.167123764533513 0.3545681367037765 1.306057329564186 3.420146053841713 6.376930158836324 8.016340891535087 11.21277332694696 0.7560144203842921 2.513753580162218 3.893285767443678 6.835404104663976 10.05255737695647 11.81372891721706 14.17683014916717 0.3700249793558886 0.2691711977851499 1.455373797163717 2.98859257921671 0.2438575895996328 0.6372512684798254 2.520442309438309 4.836231412497602 6.893857378488075 0.5590963860559225 2.232821913248989 3.201794277657594 6.114277196234038 9.034567347760111 11.09593841368892 0.2632081570276718 0.9597190377378412 2.695124715440697 5.354470896281513 6.825166068287762 10.16648212602017 12.93346274525435 14.19103510959129 0.5156709842420929 0.3600629839761852 1.850819086391863 3.612367210301047 0.292992284666639 0.7822428786456941 2.94952178179904 5.614046004317332 7.735493057482925 0.6234429824881025 2.421276660799732 3.575331517014694 6.658945438728247 9.827768893734392 11.72565503184229 0.2793030412960067 0.9764913202732877 2.782522150780255 5.435127502692128 7.137697155523886 10.43274382759962 13.32443488329578 14.28922957572 1.040631712667328 0.3523872653303105 1.704723305189685 4.336286597254646 0.252577463140805 1.388595730534219 2.836881240009313 5.279754981950743 8.570323452039178 0.2167196203742137 0.5771965897935585 2.29360579558403 4.587475067282178 6.527957842018832 9.520337449575434 12.59739098318815 0.4457208480832563 1.823008224701709 2.779451804867183 5.509733078295628 8.55840898380726 10.51693422187325 13.19282801528181 1.367691484866949 0.4564380104636014 2.136355384262036 5.153795533175416 0.3102161480391858 1.672367884837434 3.271518267554642 6.088789332474432 9.520948531544729 0.2394367736872012 0.6552309891942634 2.526363473269515 5.10502087117005 7.032385292639991 10.29818793514794 13.20874908539806 0.4608230551396499 1.852793599097744 2.9153552789759 5.681281496414774 8.942792423673868 10.66544289734163 13.49574289763808 0.6718981350972618 1.006864606796724 1.382285876113096 4.147086092732039 0.3269093277093288 1.604597394460082 4.174331608487492 5.136310294468303 8.515178906512029 0.2256329791930739 1.257545054429084 2.533520714663285 4.935480842607618 8.237139804769985 9.480879632399974 12.46595084185926 0.1563874979705977 0.462943538759052 1.880612602529629 4.066307516613739 5.766183558300455 8.891224066514212 12.11093122725122 12.99758617734644 0.9158077150909678 1.261920455722459 1.775067379734426 5.041412867996264 0.3897603618423925 1.893772015553626 4.788268882375641 6.050094460619011 9.656819037567255 0.2547703845842241 1.413003864961147 2.744340803981033 5.420054041947453 8.854303479179578 10.45364891994979 13.27704718836821 0.1596226343635452 0.4875804990115177 1.941170697386057 4.263702597391124 5.857924868325021 9.170157114511884 12.26914888063996 13.48551090399831 0.7463347267532928 0.6409048396394457 2.44945943173653 4.488753553782272 0.9300436189616237 1.30400071609519 3.985435170826961 6.710485115949433 8.938675417513597 0.2820935495155725 1.420460442439142 3.785758663054038 4.811220855274335 8.189031681950393 11.0213927789891 12.62366959313824 0.1645315079866817 1.01748677462749 1.981405959244664 4.267994267278878 7.439468797635943 8.869904544477198 12.00942088848987 1.004504209452422 0.823611038521026 3.08816554905868 5.440954423399014 1.08625098819075 1.570686624139794 4.659986797480354 7.852977803359696 10.11972638181165 0.3105080244490189 1.564450761137502 4.097831603090888 5.3823405039187 8.969159423299685 12.08186388008505 13.39077349834613 0.1720641854441266 1.066787815422213 2.012494926940199 4.40646966650033 7.557676074533814 9.306722946394666 12.35216498638772 1.732882061026658 0.7099014677615484 2.68353604461827 6.024882189121865 0.5941183415731363 2.336797716870605 4.264507522201545 7.091320402089324 10.47098930739925 0.792592729602883 1.16423465671906 3.626485283447261 6.377677757862008 8.487661976978085 11.25052776662318 0.1756542438940283 1.076393576391593 3.072285332584723 4.1850400021309 7.419119245777063 10.46715027494063 12.00198132757873 2.253046625026234 0.8958067282304203 3.355637971660652 7.228696473946409 0.7085663964661272 2.796778957359205 4.928401984295142 8.256780869370028 11.74645093879043 0.8615852922892638 1.305031557930352 3.991619231423836 7.136940763622276 9.193429466384266 12.25260946115213 0.1799868096013054 1.109283400294095 3.121385053186066 4.392683699309277 7.665377476401241 10.97743050965666 12.18003248532895 1.044358385484876 1.677741820340521 2.070148559601176 5.592433744641906 0.6506300083465124 2.526407027203332 5.80714941171439 6.710808758749002 10.08204031277031 0.5123603675887948 2.108811350078262 3.814770390070749 6.650664325181747 10.07714594776786 10.82018920241008 0.5139650830520892 0.9006121996368704 2.966641918532962 5.683991893072861 7.553182989276325 10.54835587746383 1.417852652646935 2.085817783543274 2.666429129414283 6.889364684819107 0.7614659792976061 2.977372846536331 6.709962076109529 8.005745724589328 11.56004169162248 0.5674200984890916 2.359165124502894 4.136544955781049 7.347735926044498 10.90008407618643 12.02190358423257 0.5235999470242665 0.9428625031555518 3.060510825756276 5.974191293979035 7.681975266207134 10.90399482438997 1.117888462322216 0.9968994819327431 3.430798723213274 5.88668516230185 1.545846011463529 1.955237271296971 5.385440713310029 8.263939675694083 10.2188411238129 0.5436695634313662 2.233144340670735 5.291302716805735 6.309924171961579 9.723196168490347 0.3429110938675404 1.687745211027653 2.987837729183719 5.798242006016679 9.165031299785955 10.16056269144075 1.508958275096084 1.277432813062961 4.379166228062077 7.244334700529198 1.795088155790663 2.360309029164351 6.362732369014065 9.81134408513987 11.67318248177056 0.5918035735770349 2.456753160966603 5.750924967917954 7.11771522634153 10.73176366255651 0.3556478461213015 1.765377241933368 3.035149378362476 5.998426020583373 9.323434493715649 10.69697746329006 2.431417008556163 1.064095059357091 3.650436629734517 7.450741341442495 0.9237486763962012 3.279623887313095 5.608039771679786 8.456445177995286 1.305855617769737 1.749094735755906 4.929360524123376 7.873953856401355 9.733251019428595 0.3133827081530049 1.681921296109085 4.333825304367686 5.543622898643481 8.869581120568959 3.206337452474703 1.34593792057207 4.635668980325038 9.095511560047829 1.099128925842539 3.961934466071982 6.552209132769722 9.975984701994111 1.414363304315531 1.962623400872465 5.459490613412519 8.896437085222187 10.60058994114998 0.320266930651296 1.732494918754065 4.406603205330237 5.839239483361617 9.190698260865002 1.435124978728626 2.35708557321579 2.756270561784979 6.722654845113679 0.9767611907024178 3.448658191882688 7.188981350763025 7.736406860008744 0.7940468331696638 2.977695679748441 5.05842234169144 7.963077004764561 0.8268933809958666 1.355019562103161 4.082272844700664 7.083545278115965 8.726578880186391 1.991510346740165 2.964276957652197 3.624145909333533 8.442163101462155 1.144629569442184 4.108951847232206 8.414221107288933 9.355826946768293 0.8777106771111015 3.350052240215727 5.518310830617978 8.866789201770604 0.8417546766822265 1.418784735384424 4.219862113540636 7.476335768472905 8.887113217647245 1.504786637629253 1.370423348963817 4.324350399351489 6.830624364063798 2.183057317562007 2.612972719107147 6.490673638140334 0.8173162724576649 3.077403878445389 6.600714510814008 7.301478385914302 0.5253241027249078 2.410528889017582 4.028836154417044 7.022994694510578 2.083226035316399 1.787008967829659 5.656296398462222 8.545630196352624 2.554471206348798 3.201107231469391 7.783766717089222 0.8899823631280528 3.406881963293933 7.226543654922746 8.30590685836016 0.5443876058241109 2.526940991067924 4.097750559275128 7.282730575709285 3.098257526626485 1.434378286279588 4.452599855774166 1.278490913166046 4.143205901143707 6.526092923966667 1.863971683044685 2.365384539630031 5.986916838567546 0.470333172710552 2.35925003254261 5.502387134861529 6.485642174216099 4.209112904874157 1.849467659839123 5.783288967433245 1.539555384550069 5.095587845570959 7.71663908993942 2.026652612003645 2.677971414106367 6.692262350811646 0.4806764600342384 2.435004367735264 5.603502779929966 6.854404493055314 1.805324474810758 3.003002539877139 3.252078851767905 1.329432154234705 4.223742285208967 1.116005153264397 3.803658266188875 5.937657037132787 1.200844732279846 1.876110141332375 5.047789287099866 2.599108127185168 3.864737592727674 4.375424928624175 1.578108430860108 5.111061639702601 1.241909237900136 4.32756658243247 6.523627590180019 1.223273602923194 1.971315785758714 5.236549434506424 1.837738487630285 1.720156391816934 2.806550915776028 3.092367286933926 1.135887279325347 3.82192624230731 0.7588729104642774 3.15583582136359 4.81838808271999 2.636389609025558 2.308546994096121 3.335776401280117 3.847596238246978 1.245522013731458 4.269251899808987 0.7880651814048991 3.324188591765579 4.911594820860176 1.750138377194248 1.619960687316782 2.450147935403161 2.837351177975259 0.6795956368498159 3.018554939119693 2.318663457631491 1.991014330407728 2.686944917352532 3.242232737564563 0.6957355382751825 3.123455243229604 1.641250618787841 1.449067428343559 1.65093222565371 2.32000873386376 1.986673429649639 1.633197919593842 1.684624669682819 2.445162511486838 1.441338822399183 1.036080774917522 1.600366866932447 1.081629512497929 0.9102288086245069 0.937640401417729 </DataArray>
      </CellData>
      <PointData>
        <DataArray type="Int64" IdType="1" Name="vtkOriginalPointIds" format="ascii" RangeMin="0" RangeMax="215">4 5 11 47 41 10 40 53 46 83 17 3 77 16 89 52 9 76 82 39 59 45 119 23 95 88 2 113 125 22 58 15 51 8 112 118 75 81 38 65 131 94 44 155 124 29 101 87 1 149 161 28 64 21 57 14 137 130 50 7 148 154 111 117 74 167 80 37 71 100 93 43 191 160 123 35 107 173 136 86 0 185 197 166 34 70 27 63 20 143 56 13 129 49 6 184 190 147 153 110 203 116 73 79 36 106 99 179 172 92 42 196 159 209 122 142 135 85 202 165 33 69 26 62 19 55 12 215 178 128 48 183 189 146 152 109 115 72 208 78 105 98 171 91 195 158 121 141 214 134 84 201 164 32 68 25 61 18 54 177 127 182 188 145 151 108 114 207 104 97 170 90 194 157 120 140 213 133 200 163 31 67 24 60 176 126 181 187 144 150 206 103 96 169 193 156 139 212 132 199 162 30 66 175 180 186 205 102 168 192 138 211 198 174 204 210 </DataArray>
        <DataArray type="UInt8" Name="vtkGhostType" format="ascii" RangeMin="0" RangeMax="0">0 0 0 0 0 0 0 0 0 0 0 0 0 0 0 0 0 0 0 0 0 0 0 0 0 0 0 0 0 0 0 0 0 0 0 0 0 0 0 0 0 0 0 0 0 0 0 0 0 0 0 0 0 0 0 0 0 0 0 0 0 0 0 0 0 0 0 0 0 0 0 0 0 0 0 0 0 0 0 0 0 0 0 0 0 0 0 0 0 0 0 0 0 0 0 0 0 0 0 0 0 0 0 0 0 0 0 0 0 0 0 0 0 0 0 0 0 0 0 0 0 0 0 0 0 0 0 0 0 0 0 0 0 0 0 0 0 0 0 0 0 0 0 0 0 0 0 0 0 0 0 0 0 0 0 0 0 0 0 0 0 0 0 0 0 0 0 0 0 0 0 0 0 0 0 0 0 0 0 0 0 0 0 0 0 0 0 0 0 0 0 0 0 0 0 0 0 0 0 0 0 0 0 0 0 0 0 0 0 0 0 0 0 0 0 0 </DataArray>
      </PointData>
    </Piece>
  </UnstructuredGrid>
</VTKFile>
