<?xml version="1.0"?>
<VTKFile type="UnstructuredGrid" version="2.2">
  <UnstructuredGrid>
    <Piece NumberOfPoints="216" NumberOfCells="750">
      <Points>
        <DataArray type="Float64" NumberOfComponents="3" format="ascii">0.8 0 0 1 0 0 1 0.2 0 1 0.2 0.2 1 0 0.2 0.8 0.2 0 0.8 0 0.2 1 0.4 0.2 0.8 0.2 0.2 1 0.2 0.4 1 0.4 0 0.6000000000000001 0 0 1 0 0.4 0.8 0.4 0 1 0.4 0.4 0.8 0.4 0.2 0.6000000000000001 0.2 0 0.8 0 0.4 0.8 0.2 0.4 0.6000000000000001 0 0.2 1 0.6000000000000001 0.2 0.6000000000000001 0.2 0.2 1 0.2 0.6000000000000001 1 0.6000000000000001 0 1 0.6000000000000001 0.4 0.8 0.4 0.4 0.4 0 0 1 0 0.6000000000000001 1 0.4 0.6000000000000001 0.8 0.6000000000000001 0 0.8 0.6000000000000001 0.2 0.6000000000000001 0.4 0 0.6000000000000001 0.4 0.2 0.4 0.2 0 0.8 0 0.6000000000000001 0.8 0.2 0.6000000000000001 0.6000000000000001 0 0.4 0.6000000000000001 0.2 0.4 0.4 0 0.2 1 0.8 0.2 1 0.6000000000000001 0.6000000000000001 0.8 0.6000000000000001 0.4 0.4 0.2 0.2 1 0.2 0.8 0.8 0.4 0.6000000000000001 1 0.8 0 1 0.8 0.4 0.6000000000000001 0.4 0.4 0.2 0 0 1 0 0.8 1 0.4 0.8 0.8 0.8 0 0.8 0.8 0.2 0.6000000000000001 0.6000000000000001 0 0.6000000000000001 0.6000000000000001 0.2 0.4 0.4 0 1 0.8 0.6000000000000001 0.8 0.6000000000000001 0.6000000000000001 0.4 0.4 0.2 0.2 0.2 0 0.8 0 0.8 0.8 0.2 0.8 0.6000000000000001 0 0.6000000000000001 0.6000000000000001 0.2 0.6000000000000001 0.4 0 0.4 1 0.6000000000000001 0.8 0.4 0.2 0.4 0.2 0 0.2 1 1 0.2 0.8 0.8 0.4 0.6000000000000001 0.6000000000000001 0.4 0.2 0.2 0.2 1 0.2 1 0.8 0.4 0.8 0.6000000000000001 0.4 0.6000000000000001 1 1 0 1 1 0.4 1 0.8 0.8 0.8 0.8 0.6000000000000001 0.4 0.4 0.4 0 0 0 1 0 1 1 0.4 1 0.8 0.6000000000000001 0.8 0.8 1 0 0.8 1 0.2 0.6000000000000001 0.8 0 0.6000000000000001 0.8 0.2 0.4 0.6000000000000001 0 1 1 0.6000000000000001 0.4 0.6000000000000001 0.2 0.2 0.4 0 0.6000000000000001 0.6000000000000001 0.6000000000000001 0.2 0.4 0.2 0 0.2 0 0.8 0 1 0.8 0.2 1 0.6000000000000001 0 0.8 0.6000000000000001 0.2 0.8 0.4 0 0.6000000000000001 1 0.6000000000000001 1 0.4 0.2 0.6000000000000001 0.2 0 0.4 0.2 0.2 0.4 0 0 0.2 0.8 1 0.4 0.6000000000000001 0.8 0.4 1 1 0.8 0.8 0.8 0.8 0.4 0.6000000000000001 0.4 0 0.2 0.2 0.8 0.4 1 0.6000000000000001 0.4 0.8 1 0.8 1 0.4 0.4 0.6000000000000001 0.8 1 0.6000000000000001 0.6000000000000001 0.8 0.6000000000000001 0.2 0.4 0.4 0.8 0.6000000000000001 1 0.6000000000000001 0.6000000000000001 0.8 0.6000000000000001 1 0 0.6000000000000001 1 0.2 0.4 0.8 0 0.4 0.8 0.2 0.2 0.6000000000000001 0 0.2 0.6000000000000001 0.2 0 0.4 0 1 1 1 0.8 1 0.8 0.4 0.6000000000000001 0.6000000000000001 0 0.4 0.2 0.6000000000000001 0 1 0.6000000000000001 0.2 1 0.4 0 0.8 0.4 0.2 0.8 0.2 0 0.6000000000000001 0.2 0.2 0.6000000000000001 0 0 0.4 0.8 0.8 1 0 0.2 0.4 0.6000000000000001 1 0.4 0.4 0.8 0.4 0.6000000000000001 0.8 0.8 0.2 0.6000000000000001 0.4 0.6000000000000001 0.4 1 0.4 0.4 0.8 0.2 0.4 0.6000000000000001 0.6000000000000001 1 0.6000000000000001 0.8 1 1 0.4 0.8 0.6000000000000001 0 0.4 0.4 0.6000000000000001 0.6000000000000001 1 0.4 0.6000000000000001 0.8 0.4 1 0 0.4 1 0.2 0.2 0.8 0 0.2 0.8 0.2 0 0.6000000000000001 0 0 0.6000000000000001 0.2 0.6000000000000001 1 0.8 0.2 0.6000000000000001 0.6000000000000001 0.4 0 1 0.4 0.2 1 0.2 0 0.8 0.2 0.2 0.8 0 0 0.6000000000000001 0 0.2 0.6000000000000001 0.6000000000000001 0.8 1 0.4 1 0.4 0.2 0.8 0.4 0.4 0.8 0.8 0 0.6000000000000001 0.4 0.4 0.4 1 0.2 0.4 0.8 0 0.4 0.6000000000000001 0.4 1 0.6000000000000001 0.6000000000000001 1 1 0.2 0.8 0.6000000000000001 0.4 0.6000000000000001 1 0.2 0.6000000000000001 0.8 0.2 1 0 0.2 1 0.2 0 0.8 0 0 0.8 0.2 0.4 1 0.8 0 0.6000000000000001 0.6000000000000001 0.2 0 1 0.2 0.2 1 0 0 0.8 0 0.2 0.8 0.4 0.8 1 0.2 1 0.4 0 0.8 0.4 0.2 0.8 0.8 0.2 0.4 1 0 0.4 0.8 0.2 1 0.6000000000000001 0.4 1 1 0 0.8 0.6000000000000001 0.2 0.6000000000000001 1 0 0.6000000000000001 0.8 0 1 0 0 1 0.2 0.2 1 0.8 0 0 1 0 0.2 1 0.2 0.8 1 0 1 0.4 0 0.8 0.8 0 0.4 1 0 1 0.6000000000000001 0.2 1 1 0 0.6000000000000001 1 0 1 0.8 0 0.8 1 0 1 1 </DataArray>
      </Points>
      <Cells>
        <DataArray type="Int32" Name="connectivity" format="ascii">0 1 2 3 0 1 3 4 0 2 5 3 0 4 3 6 5 2 7 3 0 5 8 3 6 4 3 9 0 8 6 3 5 2 10 7 5 3 7 8 11 0 5 8 6 4 9 12 6 3 8 9 11 0 8 6 5 10 13 7 8 3 7 14 5 15 8 7 11 5 16 8 6 12 9 17 8 3 14 9 6 8 18 9 11 6 8 19 13 10 20 7 5 13 15 7 8 7 15 14 16 5 15 8 11 16 21 8 17 12 9 22 6 18 17 9 8 9 14 18 19 6 8 18 11 21 19 8 13 10 23 20 13 7 20 15 16 5 13 15 15 7 24 14 8 15 25 14 16 8 15 21 26 11 16 21 17 12 22 27 17 9 18 22 19 6 18 17 18 9 14 28 8 25 18 14 19 8 21 18 26 11 21 19 13 23 29 20 15 7 20 24 13 30 15 20 16 13 31 15 15 14 24 25 21 8 15 25 16 32 21 15 26 16 33 21 17 27 22 34 18 9 28 22 17 18 35 22 19 17 18 36 18 14 25 28 21 8 25 18 19 21 37 18 26 19 21 38 29 23 39 20 13 29 30 20 15 20 30 24 31 13 30 15 16 31 32 15 25 14 24 40 15 41 25 24 21 15 32 25 33 16 32 21 26 33 42 21 34 27 22 43 17 35 34 22 18 22 28 35 36 17 18 35 19 37 36 18 25 14 40 28 18 25 44 28 21 18 25 37 38 19 21 37 26 42 38 21 29 23 45 39 29 20 39 30 31 13 29 30 30 20 46 24 15 30 41 24 31 15 30 32 33 16 31 32 25 24 41 40 32 15 41 25 21 32 47 25 33 21 32 42 48 26 33 42 34 27 43 49 34 22 35 43 36 17 35 34 35 22 28 50 18 44 35 28 36 18 37 35 38 19 37 36 25 28 40 44 37 18 25 44 21 47 37 25 38 21 42 37 48 26 42 38 29 45 51 39 30 20 39 46 29 52 30 39 31 29 53 30 30 24 46 41 32 15 30 41 31 54 32 30 33 31 55 32 41 24 56 40 25 41 57 40 32 25 41 47 42 21 32 47 33 58 42 32 48 33 59 42 34 49 43 60 35 22 50 43 34 35 61 43 36 34 35 62 35 28 44 50 37 18 44 35 36 37 63 35 38 36 37 64 44 28 40 65 25 57 44 40 37 25 47 44 42 21 47 37 38 42 66 37 48 38 42 67 51 45 68 39 29 51 52 39 30 39 52 46 53 29 52 30 31 53 54 30 41 24 46 56 30 69 41 46 32 30 54 41 55 31 54 32 33 55 58 32 41 40 56 57 47 25 41 57 32 70 47 41 42 32 58 47 59 33 58 42 48 59 71 42 60 49 43 72 34 61 60 43 35 43 50 61 62 34 35 61 36 63 62 35 44 28 65 50 35 44 73 50 37 35 44 63 64 36 37 63 38 66 64 37 44 40 57 65 47 25 57 44 37 47 74 44 42 37 47 66 67 38 42 66 48 71 67 42 51 45 75 68 51 39 68 52 53 29 51 52 52 39 76 46 30 52 69 46 53 30 52 54 55 31 53 54 41 46 69 56 54 30 69 41 32 54 70 41 55 32 54 58 59 33 55 58 57 40 56 77 41 78 57 56 47 41 70 57 58 32 70 47 42 58 79 47 59 42 58 71 80 48 59 71 60 49 72 81 60 43 61 72 62 34 61 60 61 43 50 82 35 73 61 50 62 35 63 61 64 36 63 62 44 50 65 73 63 35 44 73 37 74 63 44 64 37 66 63 67 38 66 64 57 40 77 65 44 57 83 65 47 44 57 74 66 37 47 74 42 79 66 47 67 42 71 66 80 48 71 67 51 75 84 68 52 39 68 76 51 85 52 68 53 51 86 52 52 46 76 69 54 30 52 69 53 87 54 52 55 53 88 54 69 46 89 56 41 69 78 56 54 41 69 70 58 32 54 70 55 90 58 54 59 55 91 58 57 56 78 77 70 41 78 57 47 70 92 57 58 47 70 79 71 42 58 79 59 93 71 58 80 59 94 71 60 81 72 95 61 43 82 72 60 61 96 72 62 60 61 97 61 50 73 82 63 35 73 61 62 63 98 61 64 62 63 99 73 50 65 100 44 83 73 65 63 44 74 73 66 37 74 63 64 66 101 63 67 64 66 102 57 65 77 83 74 44 57 83 47 92 74 57 66 47 79 74 71 42 79 66 67 71 103 66 80 67 71 104 51 84 85 68 52 68 85 76 86 51 85 52 53 86 87 52 69 46 76 89 52 105 69 76 54 52 87 69 88 53 87 54 55 88 90 54 69 56 89 78 70 41 69 78 54 106 70 69 58 54 90 70 91 55 90 58 59 91 93 58 78 56 107 77 57 78 108 77 70 57 78 92 79 47 70 92 58 109 79 70 71 58 93 79 94 59 93 71 80 94 110 71 60 96 95 72 61 72 82 96 97 60 61 96 62 98 97 61 73 50 100 82 61 73 111 82 63 61 73 98 99 62 63 98 64 101 99 63 73 65 83 100 74 44 83 73 63 74 112 73 66 63 74 101 102 64 66 101 67 103 102 66 83 65 77 113 57 108 83 77 74 57 92 83 79 47 92 74 66 79 114 74 71 66 79 103 104 67 71 103 80 110 104 71 86 51 84 85 52 85 105 76 86 52 85 87 88 53 86 87 69 76 105 89 87 52 105 69 54 87 106 69 88 54 87 90 91 55 88 90 78 56 89 107 69 115 78 89 70 69 106 78 90 54 106 70 58 90 109 70 91 58 90 93 94 59 91 93 78 77 107 108 92 57 78 108 70 116 92 78 79 70 109 92 93 58 109 79 71 93 117 79 94 71 93 110 97 60 96 95 61 111 96 82 97 61 98 96 99 62 98 97 73 82 100 111 98 61 73 111 63 112 98 73 99 63 101 98 102 64 101 99 83 65 113 100 73 83 118 100 74 73 83 112 101 63 74 112 66 114 101 74 102 66 103 101 104 67 103 102 83 77 108 113 92 57 108 83 74 92 119 83 79 74 92 114 103 66 79 114 71 117 103 79 104 71 110 103 86 84 120 85 87 52 85 105 86 121 87 85 88 86 122 87 69 105 115 89 87 69 105 106 90 54 87 106 88 123 90 87 91 88 124 90 78 89 115 107 106 69 115 78 70 106 116 78 90 70 106 109 93 58 90 109 91 125 93 90 94 91 126 93 108 77 107 127 78 128 108 107 92 78 116 108 109 70 116 92 79 109 129 92 93 79 109 117 110 71 93 117 94 130 110 93 97 95 96 131 98 61 111 96 97 98 132 96 99 97 98 133 73 118 111 100 98 73 112 111 101 63 112 98 99 101 134 98 102 99 101 135 83 100 113 118 112 73 83 118 74 119 112 83 101 74 114 112 103 66 114 101 102 103 136 101 104 102 103 137 108 77 127 113 83 108 138 113 92 83 108 119 114 74 92 119 79 129 114 92 103 79 117 114 110 71 117 103 104 110 139 103 86 120 121 85 87 85 121 105 122 86 121 87 88 122 123 87 106 69 105 115 87 140 106 105 90 87 123 106 124 88 123 90 91 124 125 90 78 115 128 107 106 78 115 116 109 70 106 116 90 141 109 106 93 90 125 109 126 91 125 93 94 126 130 93 108 107 128 127 116 78 128 108 92 116 142 108 109 92 116 129 117 79 109 129 93 143 117 109 110 93 130 117 97 132 131 96 98 96 111 132 133 97 98 132 99 134 133 98 112 73 118 111 98 112 144 111 101 98 112 134 135 99 101 134 102 136 135 101 83 138 118 113 112 83 119 118 114 74 119 112 101 114 145 112 103 101 114 136 137 102 103 136 104 139 137 103 108 113 127 138 119 83 108 138 92 142 119 108 114 92 129 119 117 79 129 114 103 117 146 114 110 103 117 139 122 86 120 121 87 121 140 105 122 87 121 123 124 88 122 123 106 105 140 115 123 87 140 106 90 123 141 106 124 90 123 125 126 91 124 125 116 78 115 128 106 147 116 115 109 106 141 116 125 90 141 109 93 125 143 109 126 93 125 130 108 128 148 127 116 108 128 142 129 92 116 142 109 149 129 116 117 109 143 129 130 93 143 117 110 130 150 117 133 97 132 131 98 144 132 111 133 98 134 132 135 99 134 133 112 111 118 144 134 98 112 144 101 145 134 112 135 101 136 134 137 102 136 135 119 83 138 118 112 119 151 118 114 112 119 145 136 101 114 145 103 146 136 114 137 103 139 136 108 148 138 127 119 108 142 138 129 92 142 119 114 129 152 119 117 114 129 146 139 103 117 146 110 150 139 117 122 120 153 121 123 87 121 140 122 154 123 121 124 122 155 123 106 140 147 115 123 106 140 141 125 90 123 141 124 156 125 123 126 124 157 125 116 115 147 128 141 106 147 116 109 141 149 116 125 109 141 143 130 93 125 143 126 158 130 125 142 108 128 148 116 159 142 128 129 116 149 142 143 109 149 129 117 143 160 129 130 117 143 150 133 131 132 161 134 98 144 132 133 134 162 132 135 133 134 163 112 151 144 118 134 112 145 144 136 101 145 134 135 136 164 134 137 135 136 165 119 118 138 151 145 112 119 151 114 152 145 119 136 114 146 145 139 103 146 136 137 139 166 136 142 108 148 138 119 142 167 138 129 119 142 152 146 114 129 152 117 160 146 129 139 117 150 146 122 153 154 121 123 121 154 140 155 122 154 123 124 155 156 123 141 106 140 147 123 168 141 140 125 123 156 141 157 124 156 125 126 157 158 125 116 147 159 128 141 116 147 149 143 109 141 149 125 169 143 141 130 125 158 143 142 128 159 148 149 116 159 142 129 149 170 142 143 129 149 160 150 117 143 160 130 171 150 143 133 162 161 132 134 132 144 162 163 133 134 162 135 164 163 134 145 112 151 144 134 145 172 144 136 134 145 164 165 135 136 164 137 166 165 136 119 167 151 138 145 119 152 151 146 114 152 145 136 146 173 145 139 136 146 166 142 138 148 167 152 119 142 167 129 170 152 142 146 129 160 152 150 117 160 146 139 150 174 146 155 122 153 154 123 154 168 140 155 123 154 156 157 124 155 156 141 140 168 147 156 123 168 141 125 156 169 141 157 125 156 158 149 116 147 159 141 175 149 147 143 141 169 149 158 125 169 143 130 158 171 143 142 159 176 148 149 142 159 170 160 129 149 170 143 177 160 149 150 143 171 160 163 133 162 161 134 172 162 144 163 134 164 162 165 135 164 163 145 144 151 172 164 134 145 172 136 173 164 145 165 136 166 164 152 119 167 151 145 152 178 151 146 145 152 173 166 136 146 173 139 174 166 146 142 176 167 148 152 142 170 167 160 129 170 152 146 160 179 152 150 146 160 174 155 153 180 154 156 123 154 168 155 181 156 154 157 155 182 156 141 168 175 147 156 141 168 169 158 125 156 169 157 183 158 156 149 147 175 159 169 141 175 149 143 169 177 149 158 143 169 171 170 142 159 176 149 184 170 159 160 149 177 170 171 143 177 160 150 171 185 160 163 161 162 186 164 134 172 162 163 164 187 162 165 163 164 188 145 178 172 151 164 145 173 172 166 136 173 164 165 166 189 164 152 151 167 178 173 145 152 178 146 179 173 152 166 146 174 173 170 142 176 167 152 170 190 167 160 152 170 179 174 146 160 179 150 185 174 160 155 180 181 154 156 154 181 168 182 155 181 156 157 182 183 156 169 141 168 175 156 191 169 168 158 156 183 169 149 175 184 159 169 149 175 177 171 143 169 177 158 192 171 169 170 159 184 176 177 149 184 170 160 177 193 170 171 160 177 185 163 187 186 162 164 162 172 187 188 163 164 187 165 189 188 164 173 145 178 172 164 173 194 172 166 164 173 189 152 190 178 167 173 152 179 178 174 146 179 173 166 174 195 173 170 167 176 190 179 152 170 190 160 193 179 170 174 160 185 179 182 155 180 181 156 181 191 168 182 156 181 183 169 168 191 175 183 156 191 169 158 183 192 169 177 149 175 184 169 196 177 175 171 169 192 177 170 184 197 176 177 170 184 193 185 160 177 193 171 198 185 177 188 163 187 186 164 194 187 172 188 164 189 187 173 172 178 194 189 164 173 194 166 195 189 173 179 152 190 178 173 179 199 178 174 173 179 195 170 197 190 176 179 170 193 190 185 160 193 179 174 185 200 179 182 180 201 181 183 156 181 191 182 202 183 181 169 191 196 175 183 169 191 192 177 175 196 184 192 169 196 177 171 192 198 177 193 170 184 197 177 203 193 184 185 177 198 193 188 186 187 204 189 164 194 187 188 189 205 187 173 199 194 178 189 173 195 194 179 178 190 199 195 173 179 199 174 200 195 179 193 170 197 190 179 193 206 190 185 179 193 200 182 201 202 181 183 181 202 191 192 169 191 196 183 207 192 191 177 196 203 184 192 177 196 198 193 184 203 197 198 177 203 193 185 198 208 193 188 205 204 187 189 187 194 205 195 173 199 194 189 195 209 194 179 206 199 190 195 179 200 199 193 190 197 206 200 179 193 206 185 208 200 193 183 202 207 191 192 191 207 196 198 177 196 203 192 210 198 196 193 203 211 197 198 193 203 208 189 209 205 194 195 194 199 209 200 179 206 199 195 200 212 199 193 211 206 197 200 193 208 206 192 207 210 196 198 196 210 203 208 193 203 211 198 213 208 203 195 212 209 199 200 199 206 212 208 193 211 206 200 208 214 206 198 210 213 203 208 203 213 211 200 214 212 206 208 206 211 214 208 213 215 211 208 215 214 211 </DataArray>
        <DataArray type="Int32" Name="offsets" format="ascii">4 8 12 16 20 24 28 32 36 40 44 48 52 56 60 64 68 72 76 80 84 88 92 96 100 104 108 112 116 120 124 128 132 136 140 144 148 152 156 160 164 168 172 176 180 184 188 192 196 200 204 208 212 216 220 224 228 232 236 240 244 248 252 256 260 264 268 272 276 280 284 288 292 296 300 304 308 312 316 320 324 328 332 336 340 344 348 352 356 360 364 368 372 376 380 384 388 392 396 400 404 408 412 416 420 424 428 432 436 440 444 448 452 456 460 464 468 472 476 480 484 488 492 496 500 504 508 512 516 520 524 528 532 536 540 544 548 552 556 560 564 568 572 576 580 584 588 592 596 600 604 608 612 616 620 624 628 632 636 640 644 648 652 656 660 664 668 672 676 680 684 688 692 696 700 704 708 712 716 720 724 728 732 736 740 744 748 752 756 760 764 768 772 776 780 784 788 792 796 800 804 808 812 816 820 824 828 832 836 840 844 848 852 856 860 864 868 872 876 880 884 888 892 896 900 904 908 912 916 920 924 928 932 936 940 944 948 952 956 960 964 968 972 976 980 984 988 992 996 1000 1004 1008 1012 1016 1020 1024 1028 1032 1036 1040 1044 1048 1052 1056 1060 1064 1068 1072 1076 1080 1084 1088 1092 1096 1100 1104 1108 1112 1116 1120 1124 1128 1132 1136 1140 1144 1148 1152 1156 1160 1164 1168 1172 1176 1180 1184 1188 1192 1196 1200 1204 1208 1212 1216 1220 1224 1228 1232 1236 1240 1244 1248 1252 1256 1260 1264 1268 1272 1276 1280 1284 1288 1292 1296 1300 1304 1308 1312 1316 1320 1324 1328 1332 1336 1340 1344 1348 1352 1356 1360 1364 1368 1372 1376 1380 1384 1388 1392 1396 1400 1404 1408 1412 1416 1420 1424 1428 1432 1436 1440 1444 1448 1452 1456 1460 1464 1468 1472 1476 1480 1484 1488 1492 1496 1500 1504 1508 1512 1516 1520 1524 1528 1532 1536 1540 1544 1548 1552 1556 1560 1564 1568 1572 1576 1580 1584 1588 1592 1596 1600 1604 1608 1612 1616 1620 1624 1628 1632 1636 1640 1644 1648 1652 1656 1660 1664 1668 1672 1676 1680 1684 1688 1692 1696 1700 1704 1708 1712 1716 1720 1724 1728 1732 1736 1740 1744 1748 1752 1756 1760 1764 1768 1772 1776 1780 1784 1788 1792 1796 1800 1804 1808 1812 1816 1820 1824 1828 1832 1836 1840 1844 1848 1852 1856 1860 1864 1868 1872 1876 1880 1884 1888 1892 1896 1900 1904 1908 1912 1916 1920 1924 1928 1932 1936 1940 1944 1948 1952 1956 1960 1964 1968 1972 1976 1980 1984 1988 1992 1996 2000 2004 2008 2012 2016 2020 2024 2028 2032 2036 2040 2044 2048 2052 2056 2060 2064 2068 2072 2076 2080 2084 2088 2092 2096 2100 2104 2108 2112 2116 2120 2124 2128 2132 2136 2140 2144 2148 2152 2156 2160 2164 2168 2172 2176 2180 2184 2188 2192 2196 2200 2204 2208 2212 2216 2220 2224 2228 2232 2236 2240 2244 2248 2252 2256 2260 2264 2268 2272 2276 2280 2284 2288 2292 2296 2300 2304 2308 2312 2316 2320 2324 2328 2332 2336 2340 2344 2348 2352 2356 2360 2364 2368 2372 2376 2380 2384 2388 2392 2396 2400 2404 2408 2412 2416 2420 2424 2428 2432 2436 2440 2444 2448 2452 2456 2460 2464 2468 2472 2476 2480 2484 2488 2492 2496 2500 2504 2508 2512 2516 2520 2524 2528 2532 2536 2540 2544 2548 2552 2556 2560 2564 2568 2572 2576 2580 2584 2588 2592 2596 2600 2604 2608 2612 2616 2620 2624 2628 2632 2636 2640 2644 2648 2652 2656 2660 2664 2668 2672 2676 2680 2684 2688 2692 2696 2700 2704 2708 2712 2716 2720 2724 2728 2732 2736 2740 2744 2748 2752 2756 2760 2764 2768 2772 2776 2780 2784 2788 2792 2796 2800 2804 2808 2812 2816 2820 2824 2828 2832 2836 2840 2844 2848 2852 2856 2860 2864 2868 2872 2876 2880 2884 2888 2892 2896 2900 2904 2908 2912 2916 2920 2924 2928 2932 2936 2940 2944 2948 2952 2956 2960 2964 2968 2972 2976 2980 2984 2988 2992 2996 3000 </DataArray>
        <DataArray type="Int8" Name="types" format="ascii">71 71 71 71 71 71 71 71 71 71 71 71 71 71 71 71 71 71 71 71 71 71 71 71 71 71 71 71 71 71 71 71 71 71 71 71 71 71 71 71 71 71 71 71 71 71 71 71 71 71 71 71 71 71 71 71 71 71 71 71 71 71 71 71 71 71 71 71 71 71 71 71 71 71 71 71 71 71 71 71 71 71 71 71 71 71 71 71 71 71 71 71 71 71 71 71 71 71 71 71 71 71 71 71 71 71 71 71 71 71 71 71 71 71 71 71 71 71 71 71 71 71 71 71 71 71 71 71 71 71 71 71 71 71 71 71 71 71 71 71 71 71 71 71 71 71 71 71 71 71 71 71 71 71 71 71 71 71 71 71 71 71 71 71 71 71 71 71 71 71 71 71 71 71 71 71 71 71 71 71 71 71 71 71 71 71 71 71 71 71 71 71 71 71 71 71 71 71 71 71 71 71 71 71 71 71 71 71 71 71 71 71 71 71 71 71 71 71 71 71 71 71 71 71 71 71 71 71 71 71 71 71 71 71 71 71 71 71 71 71 71 71 71 71 71 71 71 71 71 71 71 71 71 71 71 71 71 71 71 71 71 71 71 71 71 71 71 71 71 71 71 71 71 71 71 71 71 71 71 71 71 71 71 71 71 71 71 71 71 71 71 71 71 71 71 71 71 71 71 71 71 71 71 71 71 71 71 71 71 71 71 71 71 71 71 71 71 71 71 71 71 71 71 71 71 71 71 71 71 71 71 71 71 71 71 71 71 71 71 71 71 71 71 71 71 71 71 71 71 71 71 71 71 71 71 71 71 71 71 71 71 71 71 71 71 71 71 71 71 71 71 71 71 71 71 71 71 71 71 71 71 71 71 71 71 71 71 71 71 71 71 71 71 71 71 71 71 71 71 71 71 71 71 71 71 71 71 71 71 71 71 71 71 71 71 71 71 71 71 71 71 71 71 71 71 71 71 71 71 71 71 71 71 71 71 71 71 71 71 71 71 71 71 71 71 71 71 71 71 71 71 71 71 71 71 71 71 71 71 71 71 71 71 71 71 71 71 71 71 71 71 71 71 71 71 71 71 71 71 71 71 71 71 71 71 71 71 71 71 71 71 71 71 71 71 71 71 71 71 71 71 71 71 71 71 71 71 71 71 71 71 71 71 71 71 71 71 71 71 71 71 71 71 71 71 71 71 71 71 71 71 71 71 71 71 71 71 71 71 71 71 71 71 71 71 71 71 71 71 71 71 71 71 71 71 71 71 71 71 71 71 71 71 71 71 71 71 71 71 71 71 71 71 71 71 71 71 71 71 71 71 71 71 71 71 71 71 71 71 71 71 71 71 71 71 71 71 71 71 71 71 71 71 71 71 71 71 71 71 71 71 71 71 71 71 71 71 71 71 71 71 71 71 71 71 71 71 71 71 71 71 71 71 71 71 71 71 71 71 71 71 71 71 71 71 71 71 71 71 71 71 71 71 71 71 71 71 71 71 71 71 71 71 71 71 71 71 71 71 71 71 71 71 71 71 71 71 71 71 71 71 71 71 71 71 71 71 71 71 71 71 71 71 71 71 71 71 71 71 71 71 71 71 71 71 71 71 71 71 71 71 71 71 71 71 71 71 71 71 71 71 71 71 71 71 71 71 71 71 71 71 71 71 71 71 71 71 71 71 71 71 71 71 71 71 71 71 71 71 71 </DataArray>
      </Cells>
      <CellData>
        <DataArray type="UInt8" Name="vtkGhostType" format="ascii" RangeMin="0" RangeMax="1">0 0 0 0 0 0 0 0 0 0 0 0 0 0 0 0 0 0 0 0 0 0 0 0 0 0 0 0 0 0 0 0 0 0 0 0 0 0 0 0 0 0 0 0 0 0 0 0 0 0 0 0 0 0 0 0 0 0 0 0 0 0 0 0 0 0 0 0 0 0 0 0 0 0 0 0 0 0 0 0 0 0 0 0 0 0 0 0 0 0 0 0 0 0 0 0 0 0 0 0 0 0 0 0 0 0 0 0 0 0 0 0 0 0 0 0 0 0 0 0 0 0 0 0 0 0 0 0 0 0 0 0 0 0 0 0 0 0 0 0 0 0 0 0 0 0 0 0 0 0 0 0 0 0 0 0 0 0 0 0 0 0 0 0 0 0 0 0 0 0 0 0 0 0 0 0 0 0 0 0 0 0 0 0 0 0 0 0 0 0 0 0 0 0 0 0 0 0 0 0 0 0 0 0 0 0 0 0 0 0 0 0 0 0 0 0 0 0 0 0 0 0 0 0 0 0 0 0 0 0 0 0 0 0 0 0 0 0 0 0 0 0 0 0 0 0 0 0 0 0 0 0 0 0 0 0 0 0 0 0 0 0 0 0 0 0 0 0 0 0 0 0 0 0 0 0 0 0 0 0 0 0 0 0 0 0 0 0 0 0 0 0 0 0 0 0 0 0 0 0 0 0 0 0 0 0 0 0 0 0 0 0 0 0 0 0 0 0 0 0 0 0 0 0 0 0 0 0 0 0 0 0 0 0 0 0 0 0 0 0 0 0 0 0 0 0 0 0 0 0 0 0 0 0 0 0 0 0 0 0 0 0 0 0 0 0 0 0 0 0 0 0 0 0 0 0 0 0 0 0 0 0 0 0 0 0 0 0 0 0 0 0 0 0 0 0 0 0 0 0 0 0 0 0 0 0 0 0 0 0 0 0 0 0 0 0 0 0 0 0 0 0 0 0 0 0 0 0 0 0 0 0 0 0 0 0 0 0 0 0 0 0 0 0 0 0 0 0 0 0 0 0 0 0 0 0 0 0 0 0 0 0 0 0 0 0 0 0 0 0 0 0 0 0 0 0 0 0 0 0 0 0 0 0 0 0 0 0 0 0 0 0 0 0 0 0 0 0 0 0 0 0 0 0 0 0 0 0 0 0 0 0 0 0 0 0 0 0 0 0 0 0 0 0 0 0 0 0 0 0 0 0 0 0 0 0 0 0 0 0 0 0 0 0 0 0 0 0 0 0 0 0 0 0 0 0 0 0 0 0 0 0 0 0 0 0 0 0 0 0 0 0 0 0 0 0 0 0 0 0 0 0 0 0 0 0 0 0 0 0 0 0 0 0 0 0 0 0 0 0 0 0 0 0 0 0 0 0 0 0 0 0 0 0 0 0 0 0 0 0 0 0 0 0 0 0 0 0 0 0 0 0 0 0 0 0 0 0 0 0 0 0 0 0 0 0 0 0 0 0 0 0 0 0 0 0 0 0 0 0 0 0 0 0 0 0 0 0 0 0 0 0 0 0 0 0 0 0 0 0 0 0 0 0 0 0 0 0 0 0 0 0 0 0 0 0 0 0 0 0 0 0 0 0 0 0 0 0 0 0 0 0 0 0 0 0 0 0 0 0 0 0 0 0 0 0 0 0 0 0 0 0 0 0 0 0 0 0 0 0 0 0 0 0 0 0 0 0 0 0 </DataArray>
        <DataArray type="Int64" IdType="1" Name="vtkOriginalCellIds" format="ascii" RangeMin="0" RangeMax="749">0 1 2 3 4 5 6 7 8 9 10 11 12 13 14 15 16 17 18 19 20 21 22 23 24 25 26 27 28 29 30 31 32 33 34 35 36 37 38 39 40 41 42 43 44 45 46 47 48 49 50 51 52 53 54 55 56 57 58 59 60 61 62 63 64 65 66 67 68 69 70 71 72 73 74 75 76 77 78 79 80 81 82 83 84 85 86 87 88 89 90 91 92 93 94 95 96 97 98 99 100 101 102 103 104 105 106 107 108 109 110 111 112 113 114 115 116 117 118 119 120 121 122 123 124 125 126 127 128 129 130 131 132 133 134 135 136 137 138 139 140 141 142 143 144 145 146 147 148 149 150 151 152 153 154 155 156 157 158 159 160 161 162 163 164 165 166 167 168 169 170 171 172 173 174 175 176 177 178 179 180 181 182 183 184 185 186 187 188 189 190 191 192 193 194 195 196 197 198 199 200 201 202 203 204 205 206 207 208 209 210 211 212 213 214 215 216 217 218 219 220 221 222 223 224 225 226 227 228 229 230 231 232 233 234 235 236 237 238 239 240 241 242 243 244 245 246 247 248 249 250 251 252 253 254 255 256 257 258 259 260 261 262 263 264 265 266 267 268 269 270 271 272 273 274 275 276 277 278 279 280 281 282 283 284 285 286 287 288 289 290 291 292 293 294 295 296 297 298 299 300 301 302 303 304 305 306 307 308 309 310 311 312 313 314 315 316 317 318 319 320 321 322 323 324 325 326 327 328 329 330 331 332 333 334 335 336 337 338 339 340 341 342 343 344 345 346 347 348 349 350 351 352 353 354 355 356 357 358 359 360 361 362 363 364 365 366 367 368 369 370 371 372 373 374 375 376 377 378 379 380 381 382 383 384 385 386 387 388 389 390 391 392 393 394 395 396 397 398 399 400 401 402 403 404 405 406 407 408 409 410 411 412 413 414 415 416 417 418 419 420 421 422 423 424 425 426 427 428 429 430 431 432 433 434 435 436 437 438 439 440 441 442 443 444 445 446 447 448 449 450 451 452 453 454 455 456 457 458 459 460 461 462 463 464 465 466 467 468 469 470 471 472 473 474 475 476 477 478 479 480 481 482 483 484 485 486 487 488 489 490 491 492 493 494 495 496 497 498 499 500 501 502 503 504 505 506 507 508 509 510 511 512 513 514 515 516 517 518 519 520 521 522 523 524 525 526 527 528 529 530 531 532 533 534 535 536 537 538 539 540 541 542 543 544 545 546 547 548 549 550 551 552 553 554 555 556 557 558 559 560 561 562 563 564 565 566 567 568 569 570 571 572 573 574 575 576 577 578 579 580 581 582 583 584 585 586 587 588 589 590 591 592 593 594 595 596 597 598 599 600 601 602 603 604 605 606 607 608 609 610 611 612 613 614 615 616 617 618 619 620 621 622 623 624 625 626 627 628 629 630 631 632 633 634 635 636 637 638 639 640 641 642 643 644 645 646 647 648 649 650 651 652 653 654 655 656 657 658 659 660 661 662 663 664 665 666 667 668 669 670 671 672 673 674 675 676 677 678 679 680 681 682 683 684 685 686 687 688 689 690 691 692 693 694 695 696 697 698 699 700 701 702 703 704 705 706 707 708 709 710 711 712 713 714 715 716 717 718 719 720 721 722 723 724 725 726 727 728 729 730 731 732 733 734 735 736 737 738 739 740 741 742 743 744 745 746 747 748 749 </DataArray>
      </CellData>
      <PointData>
        <DataArray type="Int64" IdType="1" Name="vtkOriginalPointIds" format="ascii" RangeMin="0" RangeMax="215">4 5 11 47 41 10 40 53 46 83 17 3 77 16 89 52 9 76 82 39 59 45 119 23 95 88 2 113 125 22 58 15 51 8 112 118 75 81 38 65 131 94 44 155 124 29 101 87 1 149 161 28 64 21 57 14 137 130 50 7 148 154 111 117 74 167 80 37 71 100 93 43 191 160 123 35 107 173 136 86 0 185 197 166 34 70 27 63 20 143 56 13 129 49 6 184 190 147 153 110 203 116 73 79 36 106 99 179 172 92 42 196 159 209 122 142 135 85 202 165 33 69 26 62 19 55 12 215 178 128 48 183 189 146 152 109 115 72 208 78 105 98 171 91 195 158 121 141 214 134 84 201 164 32 68 25 61 18 54 177 127 182 188 145 151 108 114 207 104 97 170 90 194 157 120 140 213 133 200 163 31 67 24 60 176 126 181 187 144 150 206 103 96 169 193 156 139 212 132 199 162 30 66 175 180 186 205 102 168 192 138 211 198 174 204 210 </DataArray>
        <DataArray type="UInt8" Name="vtkGhostType" format="ascii" RangeMin="0" RangeMax="0">0 0 0 0 0 0 0 0 0 0 0 0 0 0 0 0 0 0 0 0 0 0 0 0 0 0 0 0 0 0 0 0 0 0 0 0 0 0 0 0 0 0 0 0 0 0 0 0 0 0 0 0 0 0 0 0 0 0 0 0 0 0 0 0 0 0 0 0 0 0 0 0 0 0 0 0 0 0 0 0 0 0 0 0 0 0 0 0 0 0 0 0 0 0 0 0 0 0 0 0 0 0 0 0 0 0 0 0 0 0 0 0 0 0 0 0 0 0 0 0 0 0 0 0 0 0 0 0 0 0 0 0 0 0 0 0 0 0 0 0 0 0 0 0 0 0 0 0 0 0 0 0 0 0 0 0 0 0 0 0 0 0 0 0 0 0 0 0 0 0 0 0 0 0 0 0 0 0 0 0 0 0 0 0 0 0 0 0 0 0 0 0 0 0 0 0 0 0 0 0 0 0 0 0 0 0 0 0 0 0 0 0 0 0 0 0 </DataArray>
      </PointData>
    </Piece>
  </UnstructuredGrid>
</VTKFile>
